created by fftool

14592 atoms
14336 bonds
14848 angles
17920 dihedrals
26 atom types
23 bond types
19 angle types
24 dihedral types
0.000000 48.700000 xlo xhi
0.000000 48.700000 ylo yhi
0.000000 48.700000 zlo zhi

Masses

   1   13.607  # NA DC
   2   11.611  # CR DC
   3   11.611  # CW DC
   4   11.611  # C1 DC
   5    1.008  # HCR
   6   11.611  # C1A DC
   7    1.008  # HCW
   8    1.008  # H1
   9   11.611  # CE DC
  10    1.008  # HC
  11   13.600  # NBT DC
  12   31.666  # SBT DC
  13   11.611  # CBT DC
  14   18.598  # F1 DC
  15   15.599  # OBT DC
  16    0.400  # NA DP
  17    0.400  # CR DP
  18    0.400  # CW DP
  19    0.400  # C1 DP
  20    0.400  # C1A DP
  21    0.400  # CE DP
  22    0.400  # NBT DP
  23    0.400  # SBT DP
  24    0.400  # CBT DP
  25    0.400  # F1 DP
  26    0.400  # OBT DP

Bond Coeffs

   1   477.055449     1.315000  # CR-NA
   2   427.103250     1.378000  # CW-NA
   3   520.076482     1.341000  # CW-CW
   4   336.998088     1.466000  # NA-CT
   5   339.985660     1.080000  # CR-HA
   6   339.985660     1.080000  # CW-HA
   7   339.985660     1.090000  # HC-CT
   8   267.925430     1.529000  # CT-CT
   9   374.880497     1.570000  # NB-SB
  10   233.030593     1.818000  # CF-SB
  11   637.069790     1.437000  # SB-OB
  12   441.921606     1.323000  # FB-CF
  13   500.000000     0.000000  # NA DC-DP
  14   500.000000     0.000000  # CR DC-DP
  15   500.000000     0.000000  # CW DC-DP
  16   500.000000     0.000000  # C1 DC-DP
  17   500.000000     0.000000  # C1A DC-DP
  18   500.000000     0.000000  # CE DC-DP
  19   500.000000     0.000000  # NBT DC-DP
  20   500.000000     0.000000  # SBT DC-DP
  21   500.000000     0.000000  # CBT DC-DP
  22   500.000000     0.000000  # F1 DC-DP
  23   500.000000     0.000000  # OBT DC-DP

Angle Coeffs

   1    70.004780   126.400000  # CR-NA-CT
   2    70.004780   108.000000  # CW-NA-CR
   3    70.004780   125.600000  # CW-NA-CT
   4    70.004780   109.800000  # NA-CR-NA
   5    35.002390   125.100000  # NA-CR-HA
   6    70.004780   107.100000  # NA-CW-CW
   7    35.002390   122.000000  # NA-CW-HA
   8    35.002390   130.900000  # CW-CW-HA
   9    37.500000   110.700000  # NA-CT-HC
  10    32.994742   107.800000  # HC-CT-HC
  11    58.353250   112.700000  # NA-CT-CT
  12    37.500000   110.700000  # CT-CT-HC
  13    80.186424   125.600000  # SB-NB-SB
  14    91.300191   103.500000  # NB-SB-CF
  15    94.287763   113.600000  # NB-SB-OB
  16   103.967495   102.600000  # CF-SB-OB
  17   115.798279   118.500000  # OB-SB-OB
  18    82.934990   111.700000  # FB-CF-SB
  19    93.331740   107.100000  # FB-CF-FB

Dihedral Coeffs

   1     0.000000     4.651052     0.000000     0.000000  # CT-NA-CR-NA
   2     0.000000     4.651052     0.000000     0.000000  # CW-NA-CR-NA
   3     0.000000     4.651052     0.000000     0.000000  # CT-NA-CR-HA
   4     0.000000     4.651052     0.000000     0.000000  # CW-NA-CR-HA
   5     0.000000     3.000000     0.000000     0.000000  # CR-NA-CW-CW
   6     0.000000     3.000000     0.000000     0.000000  # CT-NA-CW-CW
   7     0.000000     3.000000     0.000000     0.000000  # CR-NA-CW-HA
   8     0.000000     3.000000     0.000000     0.000000  # CT-NA-CW-HA
   9     0.000000    10.750478     0.000000     0.000000  # NA-CW-CW-HA
  10     0.000000    10.750478     0.000000     0.000000  # HA-CW-CW-HA
  11     0.000000    10.750478     0.000000     0.000000  # NA-CW-CW-NA
  12     0.000000     0.000000     0.000000     0.000000  # CR-NA-CT-HC
  13     0.000000     0.000000     0.124044     0.000000  # CW-NA-CT-HC
  14    -1.259345     0.000000     0.000000     0.000000  # CR-NA-CT-CT
  15    -1.709728     1.459465     0.189747     0.000000  # CW-NA-CT-CT
  16     0.000000     0.000000     0.087715     0.000000  # NA-CT-CT-HC
  17     0.000000     0.000000     0.300000     0.000000  # HC-CT-CT-HC
  18     7.832935    -2.490440    -0.763623     0.000000  # SB-NB-SB-CF
  19     0.000000     0.000000    -0.003585     0.000000  # OB-SB-NB-SB
  20     0.000000     0.000000     0.315966     0.000000  # NB-SB-CF-FB
  21     0.000000     0.000000     0.346797     0.000000  # OB-SB-CF-FB
  22     0.000000     2.000000     0.000000     0.000000  # CR-CW-NA-CT
  23     0.000000     2.200000     0.000000     0.000000  # NA-NA-CR-HA
  24     0.000000     2.200000     0.000000     0.000000  # NA-CW-CW-HA

Atoms

      1       1    1   2.057313  8.940239e+00  3.573248e+01  4.101159e+01  # NA c2c1im+ DC
      2       1    2   1.976039  1.024382e+01  3.566399e+01  4.117034e+01  # CR c2c1im+ DC
      3       1    1   2.057313  1.053853e+01  3.569047e+01  4.245162e+01  # NA c2c1im+ DC
      4       1    3   1.956039  9.358887e+00  3.578109e+01  4.315810e+01  # CW c2c1im+ DC
      5       1    3   1.956039  8.362804e+00  3.580727e+01  4.226065e+01  # CW c2c1im+ DC
      6       1    4   2.274943  8.217592e+00  3.573044e+01  3.973608e+01  # C1 c2c1im+ DC
      7       1    5   0.210000  1.096433e+01  3.559617e+01  4.036867e+01  # HCR c2c1im+
      8       1    6   2.067196  1.188253e+01  3.563397e+01  4.303439e+01  # C1A c2c1im+ DC
      9       1    7   0.210000  9.255943e+00  3.582312e+01  4.423237e+01  # HCW c2c1im+
     10       1    7   0.210000  7.306636e+00  3.587436e+01  4.247608e+01  # HCW c2c1im+
     11       1    8   0.130000  7.642488e+00  3.665161e+01  3.964225e+01  # H1 c2c1im+
     12       1    8   0.130000  8.930322e+00  3.566237e+01  3.891420e+01  # H1 c2c1im+
     13       1    8   0.130000  7.541901e+00  3.487581e+01  3.970208e+01  # H1 c2c1im+
     14       1    9   2.394943  1.291418e+01  3.553807e+01  4.192223e+01  # CE c2c1im+ DC
     15       1    8   0.130000  1.206328e+01  3.653523e+01  4.362020e+01  # H1 c2c1im+
     16       1    8   0.130000  1.196269e+01  3.475943e+01  4.368003e+01  # H1 c2c1im+
     17       1   10   0.060000  1.391347e+01  3.549606e+01  4.235553e+01  # HC c2c1im+
     18       1   10   0.060000  1.273467e+01  3.463673e+01  4.133616e+01  # HC c2c1im+
     19       1   10   0.060000  1.283526e+01  3.641253e+01  4.127633e+01  # HC c2c1im+
     20       2    1   2.057313  1.117302e+01  6.507805e+00  3.093448e+00  # NA c2c1im+ DC
     21       2    2   1.976039  9.962511e+00  6.312237e+00  2.618414e+00  # CR c2c1im+ DC
     22       2    1   2.057313  9.641456e+00  7.290700e+00  1.800638e+00  # NA c2c1im+ DC
     23       2    3   1.956039  1.070451e+01  8.165779e+00  1.745577e+00  # CW c2c1im+ DC
     24       2    3   1.956039  1.165901e+01  7.677865e+00  2.551281e+00  # CW c2c1im+ DC
     25       2    4   2.274943  1.188926e+01  5.641071e+00  4.034155e+00  # C1 c2c1im+ DC
     26       2    5   0.210000  9.327301e+00  5.473789e+00  2.863188e+00  # HCR c2c1im+
     27       2    6   2.067196  8.377471e+00  7.433223e+00  1.071814e+00  # C1A c2c1im+ DC
     28       2    7   0.210000  1.075875e+01  9.073666e+00  1.163170e+00  # HCW c2c1im+
     29       2    7   0.210000  1.262667e+01  8.118831e+00  2.739909e+00  # HCW c2c1im+
     30       2    8   0.130000  1.212786e+01  6.202935e+00  4.937194e+00  # H1 c2c1im+
     31       2    8   0.130000  1.126200e+01  4.787972e+00  4.292749e+00  # H1 c2c1im+
     32       2    8   0.130000  1.281121e+01  5.286956e+00  3.572952e+00  # H1 c2c1im+
     33       2    9   2.394943  7.466587e+00  6.262018e+00  1.401923e+00  # CE c2c1im+ DC
     34       2    8   0.130000  7.891829e+00  8.364210e+00  1.364242e+00  # H1 c2c1im+
     35       2    8   0.130000  8.575178e+00  7.448231e+00 -0.000000e+00  # H1 c2c1im+
     36       2   10   0.060000  6.526790e+00  6.367986e+00  8.600280e-01  # HC c2c1im+
     37       2   10   0.060000  7.951098e+00  5.330509e+00  1.109279e+00  # HC c2c1im+
     38       2   10   0.060000  7.267749e+00  6.246488e+00  2.473521e+00  # HC c2c1im+
     39       3    1   2.057313  4.693796e+01  3.869801e+01  4.469797e+01  # NA c2c1im+ DC
     40       3    2   1.976039  4.739695e+01  3.976295e+01  4.407792e+01  # CR c2c1im+ DC
     41       3    1   2.057313  4.645177e+01  4.067369e+01  4.399776e+01  # NA c2c1im+ DC
     42       3    3   1.956039  4.532039e+01  4.016735e+01  4.459982e+01  # CW c2c1im+ DC
     43       3    3   1.956039  4.562339e+01  3.893608e+01  4.503620e+01  # CW c2c1im+ DC
     44       3    4   2.274943  4.768371e+01  3.746881e+01  4.498447e+01  # C1 c2c1im+ DC
     45       3    5   0.210000  4.839975e+01  3.987308e+01  4.369236e+01  # HCR c2c1im+
     46       3    6   2.067196  4.657200e+01  4.199711e+01  4.337868e+01  # C1A c2c1im+ DC
     47       3    7   0.210000  4.436877e+01  4.066792e+01  4.470115e+01  # HCW c2c1im+
     48       3    7   0.210000  4.496174e+01  3.825834e+01  4.555514e+01  # HCW c2c1im+
     49       3    8   0.130000  4.719105e+01  3.662385e+01  4.450341e+01  # H1 c2c1im+
     50       3    8   0.130000  4.870000e+01  3.756223e+01  4.460168e+01  # H1 c2c1im+
     51       3    8   0.130000  4.771535e+01  3.730514e+01  4.606165e+01  # H1 c2c1im+
     52       3    9   2.394943  4.797778e+01  4.217401e+01  4.282834e+01  # CE c2c1im+ DC
     53       3    8   0.130000  4.585056e+01  4.208573e+01  4.256642e+01  # H1 c2c1im+
     54       3    8   0.130000  4.637486e+01  4.276702e+01  4.412466e+01  # H1 c2c1im+
     55       3   10   0.060000  4.806717e+01  4.315800e+01  4.236804e+01  # HC c2c1im+
     56       3   10   0.060000  4.870000e+01  4.208617e+01  4.363999e+01  # HC c2c1im+
     57       3   10   0.060000  4.817570e+01  4.140488e+01  4.208176e+01  # HC c2c1im+
     58       4    1   2.057313  4.360370e+01  8.552026e+00  3.257379e+01  # NA c2c1im+ DC
     59       4    2   1.976039  4.440372e+01  8.017259e+00  3.167757e+01  # CR c2c1im+ DC
     60       4    1   2.057313  4.370684e+01  7.276758e+00  3.084376e+01  # NA c2c1im+ DC
     61       4    3   1.956039  4.238371e+01  7.337718e+00  3.122389e+01  # CW c2c1im+ DC
     62       4    3   1.956039  4.231943e+01  8.132489e+00  3.230208e+01  # CW c2c1im+ DC
     63       4    4   2.274943  4.399715e+01  9.439287e+00  3.367248e+01  # C1 c2c1im+ DC
     64       4    5   0.210000  4.547275e+01  8.164187e+00  3.163301e+01  # HCR c2c1im+
     65       4    6   2.067196  4.423629e+01  6.516898e+00  2.970734e+01  # C1A c2c1im+ DC
     66       4    7   0.210000  4.155457e+01  6.839246e+00  3.074384e+01  # HCW c2c1im+
     67       4    7   0.210000  4.142877e+01  8.394591e+00  3.285383e+01  # HCW c2c1im+
     68       4    8   0.130000  4.372380e+01  8.983347e+00  3.462406e+01  # H1 c2c1im+
     69       4    8   0.130000  4.507498e+01  9.598987e+00  3.364302e+01  # H1 c2c1im+
     70       4    8   0.130000  4.348561e+01  1.039616e+01  3.356843e+01  # H1 c2c1im+
     71       4    9   2.394943  4.574181e+01  6.709510e+00  2.962543e+01  # CE c2c1im+ DC
     72       4    8   0.130000  4.401269e+01  5.458544e+00  2.984145e+01  # H1 c2c1im+
     73       4    8   0.130000  4.377450e+01  6.871357e+00  2.878582e+01  # H1 c2c1im+
     74       4   10   0.060000  4.613547e+01  6.144540e+00  2.878047e+01  # HC c2c1im+
     75       4   10   0.060000  4.596646e+01  7.767561e+00  2.949067e+01  # HC c2c1im+
     76       4   10   0.060000  4.620465e+01  6.354749e+00  3.054631e+01  # HC c2c1im+
     77       5    1   2.057313  7.066235e+00  2.553722e+01  3.385057e+01  # NA c2c1im+ DC
     78       5    2   1.976039  7.908506e+00  2.452779e+01  3.387994e+01  # CR c2c1im+ DC
     79       5    1   2.057313  9.125977e+00  2.496998e+01  3.410680e+01  # NA c2c1im+ DC
     80       5    3   1.956039  9.064887e+00  2.634105e+01  3.423055e+01  # CW c2c1im+ DC
     81       5    3   1.956039  7.781218e+00  2.669456e+01  3.407087e+01  # CW c2c1im+ DC
     82       5    4   2.274943  5.619993e+00  2.545757e+01  3.362431e+01  # C1 c2c1im+ DC
     83       5    5   0.210000  7.640553e+00  2.349111e+01  3.373890e+01  # HCR c2c1im+
     84       5    6   2.067196  1.033999e+01  2.415485e+01  3.421119e+01  # C1A c2c1im+ DC
     85       5    7   0.210000  9.894640e+00  2.700577e+01  3.442041e+01  # HCW c2c1im+
     86       5    7   0.210000  7.382534e+00  2.769760e+01  3.410791e+01  # HCW c2c1im+
     87       5    8   0.130000  5.358348e+00  2.603338e+01  3.273657e+01  # H1 c2c1im+
     88       5    8   0.130000  5.331131e+00  2.441654e+01  3.347969e+01  # H1 c2c1im+
     89       5    8   0.130000  5.093661e+00  2.586349e+01  3.448820e+01  # H1 c2c1im+
     90       5    9   2.394943  9.985774e+00  2.268970e+01  3.401556e+01  # CE c2c1im+ DC
     91       5    8   0.130000  1.105130e+01  2.446167e+01  3.344438e+01  # H1 c2c1im+
     92       5    8   0.130000  1.078662e+01  2.429178e+01  3.519601e+01  # H1 c2c1im+
     93       5   10   0.060000  1.088842e+01  2.208364e+01  3.409317e+01  # HC c2c1im+
     94       5   10   0.060000  9.274922e+00  2.238171e+01  3.478232e+01  # HC c2c1im+
     95       5   10   0.060000  9.539609e+00  2.255160e+01  3.303069e+01  # HC c2c1im+
     96       6    1   2.057313  1.853102e+01  3.994597e+01  1.518266e+01  # NA c2c1im+ DC
     97       6    2   1.976039  1.887552e+01  3.942792e+01  1.634118e+01  # CR c2c1im+ DC
     98       6    1   2.057313  2.012546e+01  3.902221e+01  1.629368e+01  # NA c2c1im+ DC
     99       6    3   1.956039  2.061381e+01  3.929401e+01  1.503411e+01  # CW c2c1im+ DC
    100       6    3   1.956039  1.962012e+01  3.986972e+01  1.434170e+01  # CW c2c1im+ DC
    101       6    4   2.274943  1.722245e+01  4.050834e+01  1.483546e+01  # C1 c2c1im+ DC
    102       6    5   0.210000  1.822888e+01  3.934768e+01  1.720247e+01  # HCR c2c1im+
    103       6    6   2.067196  2.087507e+01  3.839097e+01  1.738400e+01  # C1A c2c1im+ DC
    104       6    7   0.210000  2.160942e+01  3.908308e+01  1.467261e+01  # HCW c2c1im+
    105       6    7   0.210000  1.966480e+01  4.020973e+01  1.331759e+01  # HCW c2c1im+
    106       6    8   0.130000  1.679818e+01  3.995312e+01  1.399890e+01  # H1 c2c1im+
    107       6    8   0.130000  1.655563e+01  4.043566e+01  1.569462e+01  # H1 c2c1im+
    108       6    8   0.130000  1.733922e+01  4.155497e+01  1.455433e+01  # H1 c2c1im+
    109       6    9   2.394943  1.998279e+01  3.826781e+01  1.860836e+01  # CE c2c1im+ DC
    110       6    8   0.130000  2.120355e+01  3.739920e+01  1.707320e+01  # H1 c2c1im+
    111       6    8   0.130000  2.174459e+01  3.900106e+01  1.762862e+01  # H1 c2c1im+
    112       6   10   0.060000  2.054014e+01  3.779848e+01  1.941903e+01  # HC c2c1im+
    113       6   10   0.060000  1.965425e+01  3.925918e+01  1.892036e+01  # HC c2c1im+
    114       6   10   0.060000  1.911322e+01  3.765733e+01  1.836493e+01  # HC c2c1im+
    115       7    1   2.057313  1.792636e+01  2.357019e+01  3.362880e+01  # NA c2c1im+ DC
    116       7    2   1.976039  1.898162e+01  2.329056e+01  3.436192e+01  # CR c2c1im+ DC
    117       7    1   2.057313  1.914594e+01  2.198751e+01  3.442737e+01  # NA c2c1im+ DC
    118       7    3   1.956039  1.814034e+01  2.139421e+01  3.369550e+01  # CW c2c1im+ DC
    119       7    3   1.956039  1.738028e+01  2.238057e+01  3.319781e+01  # CW c2c1im+ DC
    120       7    4   2.274943  1.741217e+01  2.490742e+01  3.331802e+01  # C1 c2c1im+ DC
    121       7    5   0.210000  1.961789e+01  2.402145e+01  3.483875e+01  # HCR c2c1im+
    122       7    6   2.067196  2.020893e+01  2.128198e+01  3.514947e+01  # C1A c2c1im+ DC
    123       7    7   0.210000  1.799222e+01  2.033435e+01  3.355009e+01  # HCW c2c1im+
    124       7    7   0.210000  1.650479e+01  2.226461e+01  3.257614e+01  # HCW c2c1im+
    125       7    8   0.130000  1.639272e+01  2.500128e+01  3.369223e+01  # H1 c2c1im+
    126       7    8   0.130000  1.804330e+01  2.565915e+01  3.379203e+01  # H1 c2c1im+
    127       7    8   0.130000  1.741763e+01  2.505750e+01  3.223842e+01  # H1 c2c1im+
    128       7    9   2.394943  2.111785e+01  2.229295e+01  3.582934e+01  # CE c2c1im+ DC
    129       7    8   0.130000  1.976633e+01  2.062872e+01  3.590144e+01  # H1 c2c1im+
    130       7    8   0.130000  2.079123e+01  2.068495e+01  3.444763e+01  # H1 c2c1im+
    131       7   10   0.060000  2.190820e+01  2.176837e+01  3.636623e+01  # HC c2c1im+
    132       7   10   0.060000  2.156148e+01  2.294635e+01  3.507810e+01  # HC c2c1im+
    133       7   10   0.060000  2.053658e+01  2.289013e+01  3.653190e+01  # HC c2c1im+
    134       8    1   2.057313  4.172107e+01  4.771596e+01  3.229714e+01  # NA c2c1im+ DC
    135       8    2   1.976039  4.048046e+01  4.734661e+01  3.206546e+01  # CR c2c1im+ DC
    136       8    1   2.057313  3.972440e+01  4.765334e+01  3.309673e+01  # NA c2c1im+ DC
    137       8    3   1.956039  4.052242e+01  4.825395e+01  3.404612e+01  # CW c2c1im+ DC
    138       8    3   1.956039  4.176678e+01  4.829297e+01  3.354780e+01  # CW c2c1im+ DC
    139       8    4   2.274943  4.286230e+01  4.754861e+01  3.139229e+01  # C1 c2c1im+ DC
    140       8    5   0.210000  4.013440e+01  4.686379e+01  3.116350e+01  # HCR c2c1im+
    141       8    6   2.067196  3.828527e+01  4.740387e+01  3.322254e+01  # C1A c2c1im+ DC
    142       8    7   0.210000  4.020537e+01  4.862365e+01  3.501007e+01  # HCW c2c1im+
    143       8    7   0.210000  4.264055e+01  4.870002e+01  3.403487e+01  # HCW c2c1im+
    144       8    8   0.130000  4.362226e+01  4.693411e+01  3.187493e+01  # H1 c2c1im+
    145       8    8   0.130000  4.253099e+01  4.706195e+01  3.047495e+01  # H1 c2c1im+
    146       8    8   0.130000  4.328336e+01  4.852517e+01  3.115325e+01  # H1 c2c1im+
    147       8    9   2.394943  3.777614e+01  4.672373e+01  3.196215e+01  # CE c2c1im+ DC
    148       8    8   0.130000  3.810151e+01  4.675933e+01  3.408213e+01  # H1 c2c1im+
    149       8    8   0.130000  3.776261e+01  4.835039e+01  3.336045e+01  # H1 c2c1im+
    150       8   10   0.060000  3.670612e+01  4.653824e+01  3.205569e+01  # HC c2c1im+
    151       8   10   0.060000  3.795889e+01  4.736778e+01  3.110198e+01  # HC c2c1im+
    152       8   10   0.060000  3.829778e+01  4.577673e+01  3.182366e+01  # HC c2c1im+
    153       9    1   2.057313  1.825426e+01  2.048257e+01  1.325201e+01  # NA c2c1im+ DC
    154       9    2   1.976039  1.779229e+01  2.162533e+01  1.371017e+01  # CR c2c1im+ DC
    155       9    1   2.057313  1.796298e+01  2.168469e+01  1.501269e+01  # NA c2c1im+ DC
    156       9    3   1.956039  1.856883e+01  2.051476e+01  1.541653e+01  # CW c2c1im+ DC
    157       9    3   1.956039  1.875036e+01  1.976557e+01  1.431923e+01  # CW c2c1im+ DC
    158       9    4   2.274943  1.824801e+01  2.003881e+01  1.185480e+01  # C1 c2c1im+ DC
    159       9    5   0.210000  1.734047e+01  2.239905e+01  1.310716e+01  # HCR c2c1im+
    160       9    6   2.067196  1.757927e+01  2.279592e+01  1.588854e+01  # C1A c2c1im+ DC
    161       9    7   0.210000  1.884541e+01  2.025087e+01  1.642661e+01  # HCW c2c1im+
    162       9    7   0.210000  1.920066e+01  1.878474e+01  1.427924e+01  # HCW c2c1im+
    163       9    8   0.130000  1.767316e+01  1.911675e+01  1.176845e+01  # H1 c2c1im+
    164       9    8   0.130000  1.779469e+01  2.080879e+01  1.123051e+01  # H1 c2c1im+
    165       9    8   0.130000  1.927153e+01  1.986048e+01  1.152510e+01  # H1 c2c1im+
    166       9    9   2.394943  1.694022e+01  2.389806e+01  1.505950e+01  # CE c2c1im+ DC
    167       9    8   0.130000  1.686637e+01  2.244258e+01  1.663353e+01  # H1 c2c1im+
    168       9    8   0.130000  1.846474e+01  2.318630e+01  1.639018e+01  # H1 c2c1im+
    169       9   10   0.060000  1.665493e+01  2.472428e+01  1.571070e+01  # HC c2c1im+
    170       9   10   0.060000  1.765260e+01  2.425255e+01  1.431454e+01  # HC c2c1im+
    171       9   10   0.060000  1.605423e+01  2.350882e+01  1.455790e+01  # HC c2c1im+
    172      10    1   2.057313  3.994668e+01  1.797392e+00  3.123923e+01  # NA c2c1im+ DC
    173      10    2   1.976039  4.075344e+01  2.249433e+00  3.217412e+01  # CR c2c1im+ DC
    174      10    1   2.057313  4.168522e+01  3.002754e+00  3.163234e+01  # NA c2c1im+ DC
    175      10    3   1.956039  4.146671e+01  3.038172e+00  3.027223e+01  # CW c2c1im+ DC
    176      10    3   1.956039  4.038322e+01  2.286968e+00  3.002724e+01  # CW c2c1im+ DC
    177      10    4   2.274943  3.878488e+01  9.259340e-01  3.143911e+01  # C1 c2c1im+ DC
    178      10    5   0.210000  4.066417e+01  2.034269e+00  3.322870e+01  # HCR c2c1im+
    179      10    6   2.067196  4.276919e+01  3.687931e+00  3.234276e+01  # C1A c2c1im+ DC
    180      10    7   0.210000  4.205696e+01  3.570685e+00  2.954118e+01  # HCW c2c1im+
    181      10    7   0.210000  3.993660e+01  2.100599e+00  2.906174e+01  # HCW c2c1im+
    182      10    8   0.130000  3.892431e+01 -2.000000e-06  3.088116e+01  # H1 c2c1im+
    183      10    8   0.130000  3.867921e+01  6.980040e-01  3.249976e+01  # H1 c2c1im+
    184      10    8   0.130000  3.788608e+01  1.430932e+00  3.108522e+01  # H1 c2c1im+
    185      10    9   2.394943  4.266285e+01  3.398520e+00  3.383116e+01  # CE c2c1im+ DC
    186      10    8   0.130000  4.372998e+01  3.331315e+00  3.197155e+01  # H1 c2c1im+
    187      10    8   0.130000  4.269175e+01  4.762250e+00  3.217560e+01  # H1 c2c1im+
    188      10   10   0.060000  4.346880e+01  3.907962e+00  3.435938e+01  # HC c2c1im+
    189      10   10   0.060000  4.170257e+01  3.755350e+00  3.420351e+01  # HC c2c1im+
    190      10   10   0.060000  4.274080e+01  2.324415e+00  3.399945e+01  # HC c2c1im+
    191      11    1   2.057313  4.374530e+01  3.778015e+01  4.267066e+01  # NA c2c1im+ DC
    192      11    2   1.976039  4.460218e+01  3.823168e+01  4.178121e+01  # CR c2c1im+ DC
    193      11    1   2.057313  4.555230e+01  3.734353e+01  4.158711e+01  # NA c2c1im+ DC
    194      11    3   1.956039  4.529324e+01  3.625897e+01  4.239675e+01  # CW c2c1im+ DC
    195      11    3   1.956039  4.416709e+01  3.653108e+01  4.307203e+01  # CW c2c1im+ DC
    196      11    4   2.274943  4.254903e+01  3.847405e+01  4.315707e+01  # C1 c2c1im+ DC
    197      11    5   0.210000  4.453558e+01  3.918843e+01  4.128463e+01  # HCR c2c1im+
    198      11    6   2.067196  4.669029e+01  3.747582e+01  4.067244e+01  # C1A c2c1im+ DC
    199      11    7   0.210000  4.588566e+01  3.535919e+01  4.247308e+01  # HCW c2c1im+
    200      11    7   0.210000  4.368180e+01  3.589170e+01  4.379459e+01  # HCW c2c1im+
    201      11    8   0.130000  4.262535e+01  3.861892e+01  4.423470e+01  # H1 c2c1im+
    202      11    8   0.130000  4.246563e+01  3.944342e+01  4.266568e+01  # H1 c2c1im+
    203      11    8   0.130000  4.166540e+01  3.787647e+01  4.293300e+01  # H1 c2c1im+
    204      11    9   2.394943  4.661663e+01  3.881735e+01  3.996160e+01  # CE c2c1im+ DC
    205      11    8   0.130000  4.762034e+01  3.741529e+01  4.123764e+01  # H1 c2c1im+
    206      11    8   0.130000  4.666039e+01  3.667285e+01  3.993594e+01  # H1 c2c1im+
    207      11   10   0.060000  4.746275e+01  3.891571e+01  3.928153e+01  # HC c2c1im+
    208      11   10   0.060000  4.568715e+01  3.887863e+01  3.939556e+01  # HC c2c1im+
    209      11   10   0.060000  4.664709e+01  3.962108e+01  4.069726e+01  # HC c2c1im+
    210      12    1   2.057313  4.505297e+01  3.520269e+01  8.267577e+00  # NA c2c1im+ DC
    211      12    2   1.976039  4.608956e+01  3.440044e+01  8.162255e+00  # CR c2c1im+ DC
    212      12    1   2.057313  4.576557e+01  3.319671e+01  8.580915e+00  # NA c2c1im+ DC
    213      12    3   1.956039  4.444640e+01  3.322478e+01  8.978266e+00  # CW c2c1im+ DC
    214      12    3   1.956039  4.400229e+01  3.447495e+01  8.782989e+00  # CW c2c1im+ DC
    215      12    4   2.274943  4.501071e+01  3.662228e+01  7.904056e+00  # C1 c2c1im+ DC
    216      12    5   0.210000  4.706124e+01  3.468717e+01  7.788046e+00  # HCR c2c1im+
    217      12    6   2.067196  4.664641e+01  3.202553e+01  8.621229e+00  # C1A c2c1im+ DC
    218      12    7   0.210000  4.387730e+01  3.239596e+01  9.372708e+00  # HCW c2c1im+
    219      12    7   0.210000  4.300820e+01  3.484250e+01  8.990555e+00  # HCW c2c1im+
    220      12    8   0.130000  4.476095e+01  3.721580e+01  8.783516e+00  # H1 c2c1im+
    221      12    8   0.130000  4.598484e+01  3.692960e+01  7.523632e+00  # H1 c2c1im+
    222      12    8   0.130000  4.425489e+01  3.677843e+01  7.134350e+00  # H1 c2c1im+
    223      12    9   2.394943  4.802169e+01  3.240676e+01  8.098107e+00  # CE c2c1im+ DC
    224      12    8   0.130000  4.673425e+01  3.167151e+01  9.648387e+00  # H1 c2c1im+
    225      12    8   0.130000  4.622819e+01  3.123414e+01  7.999221e+00  # H1 c2c1im+
    226      12   10   0.060000  4.867661e+01  3.153597e+01  8.128081e+00  # HC c2c1im+
    227      12   10   0.060000  4.793501e+01  3.276036e+01  7.070704e+00  # HC c2c1im+
    228      12   10   0.060000  4.844107e+01  3.319773e+01  8.719870e+00  # HC c2c1im+
    229      13    1   2.057313  1.834604e+01  2.484760e+01  2.388626e+01  # NA c2c1im+ DC
    230      13    2   1.976039  1.855941e+01  2.374282e+01  2.456682e+01  # CR c2c1im+ DC
    231      13    1   2.057313  1.900726e+01  2.403862e+01  2.576730e+01  # NA c2c1im+ DC
    232      13    3   1.956039  1.908697e+01  2.541078e+01  2.586590e+01  # CW c2c1im+ DC
    233      13    3   1.956039  1.867488e+01  2.591495e+01  2.469361e+01  # CW c2c1im+ DC
    234      13    4   2.274943  1.784671e+01  2.493983e+01  2.251101e+01  # C1 c2c1im+ DC
    235      13    5   0.210000  1.839194e+01  2.274257e+01  2.419551e+01  # HCR c2c1im+
    236      13    6   2.067196  1.936173e+01  2.308319e+01  2.682117e+01  # C1A c2c1im+ DC
    237      13    7   0.210000  1.941885e+01  2.597411e+01  2.672550e+01  # HCW c2c1im+
    238      13    7   0.210000  1.861240e+01  2.696076e+01  2.443135e+01  # HCW c2c1im+
    239      13    8   0.130000  1.858372e+01  2.544860e+01  2.188967e+01  # H1 c2c1im+
    240      13    8   0.130000  1.767179e+01  2.393773e+01  2.211945e+01  # H1 c2c1im+
    241      13    8   0.130000  1.691282e+01  2.550181e+01  2.249992e+01  # H1 c2c1im+
    242      13    9   2.394943  1.913341e+01  2.166663e+01  2.631953e+01  # CE c2c1im+ DC
    243      13    8   0.130000  2.041100e+01  2.320879e+01  2.708826e+01  # H1 c2c1im+
    244      13    8   0.130000  1.874010e+01  2.326200e+01  2.769850e+01  # H1 c2c1im+
    245      13   10   0.060000  1.939696e+01  2.095625e+01  2.710310e+01  # HC c2c1im+
    246      13   10   0.060000  1.808420e+01  2.153980e+01  2.605274e+01  # HC c2c1im+
    247      13   10   0.060000  1.975510e+01  2.148659e+01  2.544250e+01  # HC c2c1im+
    248      14    1   2.057313  4.611029e+01  1.000894e+00  1.817100e+01  # NA c2c1im+ DC
    249      14    2   1.976039  4.673808e+01  1.469748e+00  1.922706e+01  # CR c2c1im+ DC
    250      14    1   2.057313  4.601146e+01  1.266262e+00  2.030401e+01  # NA c2c1im+ DC
    251      14    3   1.956039  4.485045e+01  6.307280e-01  1.992054e+01  # CW c2c1im+ DC
    252      14    3   1.956039  4.491205e+01  4.653450e-01  1.859121e+01  # CW c2c1im+ DC
    253      14    4   2.274943  4.659046e+01  1.036081e+00  1.678631e+01  # C1 c2c1im+ DC
    254      14    5   0.210000  4.770536e+01  1.949907e+00  1.921214e+01  # HCR c2c1im+
    255      14    6   2.067196  4.636643e+01  1.645506e+00  2.167490e+01  # C1A c2c1im+ DC
    256      14    7   0.210000  4.404293e+01  3.236330e-01  2.056861e+01  # HCW c2c1im+
    257      14    7   0.210000  4.416347e+01 -1.600000e-05  1.796714e+01  # HCW c2c1im+
    258      14    8   0.130000  4.588705e+01  1.597559e+00  1.617144e+01  # H1 c2c1im+
    259      14    8   0.130000  4.756743e+01  1.518230e+00  1.675213e+01  # H1 c2c1im+
    260      14    8   0.130000  4.667442e+01  1.865200e-02  1.640435e+01  # H1 c2c1im+
    261      14    9   2.394943  4.772651e+01  2.324146e+00  2.167758e+01  # CE c2c1im+ DC
    262      14    8   0.130000  4.561723e+01  2.332819e+00  2.206785e+01  # H1 c2c1im+
    263      14    8   0.130000  4.640460e+01  7.539120e-01  2.230076e+01  # H1 c2c1im+
    264      14   10   0.060000  4.799044e+01  2.606121e+00  2.269685e+01  # HC c2c1im+
    265      14   10   0.060000  4.847659e+01  1.637379e+00  2.128535e+01  # HC c2c1im+
    266      14   10   0.060000  4.768922e+01  3.216286e+00  2.105244e+01  # HC c2c1im+
    267      15    1   2.057313  1.672654e+00  8.050927e+00  1.993693e+01  # NA c2c1im+ DC
    268      15    2   1.976039  1.291292e+00  8.333594e+00  1.871060e+01  # CR c2c1im+ DC
    269      15    1   2.057313  2.200562e+00  9.079308e+00  1.812207e+01  # NA c2c1im+ DC
    270      15    3   1.956039  3.225209e+00  9.288941e+00  1.901931e+01  # CW c2c1im+ DC
    271      15    3   1.956039  2.896207e+00  8.648035e+00  2.015036e+01  # CW c2c1im+ DC
    272      15    4   2.274943  9.348420e-01  7.244105e+00  2.091357e+01  # C1 c2c1im+ DC
    273      15    5   0.210000  3.695720e-01  8.002903e+00  1.825510e+01  # HCR c2c1im+
    274      15    6   2.067196  2.142380e+00  9.600185e+00  1.675296e+01  # C1A c2c1im+ DC
    275      15    7   0.210000  4.124041e+00  9.861606e+00  1.884451e+01  # HCW c2c1im+
    276      15    7   0.210000  3.480193e+00  8.607370e+00  2.105795e+01  # HCW c2c1im+
    277      15    8   0.130000  7.184200e-01  7.847788e+00  2.179495e+01  # H1 c2c1im+
    278      15    8   0.130000 -0.000000e+00  6.901183e+00  2.047020e+01  # H1 c2c1im+
    279      15    8   0.130000  1.536749e+00  6.382602e+00  2.120274e+01  # H1 c2c1im+
    280      15    9   2.394943  8.511620e-01  9.146236e+00  1.609184e+01  # CE c2c1im+ DC
    281      15    8   0.130000  2.174523e+00  1.068946e+01  1.677641e+01  # H1 c2c1im+
    282      15    8   0.130000  2.992853e+00  9.224272e+00  1.618421e+01  # H1 c2c1im+
    283      15   10   0.060000  8.079030e-01  9.533518e+00  1.507388e+01  # HC c2c1im+
    284      15   10   0.060000  8.183300e-01  8.057006e+00  1.606733e+01  # HC c2c1im+
    285      15   10   0.060000 -0.000000e+00  9.522192e+00  1.665953e+01  # HC c2c1im+
    286      16    1   2.057313  4.319973e+01  1.335909e+01  4.777955e+01  # NA c2c1im+ DC