created by fftool

8704 atoms
8448 bonds
14848 angles
17920 dihedrals
15 atom types
12 bond types
19 angle types
24 dihedral types
0.000000 49.000000 xlo xhi
0.000000 49.000000 ylo yhi
0.000000 49.000000 zlo zhi

Masses

   1   14.007  # NA
   2   12.011  # CR
   3   12.011  # CW
   4   12.011  # C1
   5    1.008  # HCR
   6   12.011  # C1A
   7    1.008  # HCW
   8    1.008  # H1
   9   12.011  # CE
  10    1.008  # HC
  11   14.000  # NBT
  12   32.066  # SBT
  13   12.011  # CBT
  14   18.998  # F1
  15   15.999  # OBT

Bond Coeffs

   1   477.055449     1.315000  # CR-NA
   2   427.103250     1.378000  # CW-NA
   3   520.076482     1.341000  # CW-CW
   4   336.998088     1.466000  # NA-CT
   5   339.985660     1.080000  # CR-HA
   6   339.985660     1.080000  # CW-HA
   7   339.985660     1.090000  # HC-CT
   8   267.925430     1.529000  # CT-CT
   9   374.880497     1.570000  # NB-SB
  10   233.030593     1.818000  # CF-SB
  11   637.069790     1.437000  # SB-OB
  12   441.921606     1.323000  # FB-CF

Angle Coeffs

   1    70.004780   126.400000  # CR-NA-CT
   2    70.004780   108.000000  # CW-NA-CR
   3    70.004780   125.600000  # CW-NA-CT
   4    70.004780   109.800000  # NA-CR-NA
   5    35.002390   125.100000  # NA-CR-HA
   6    70.004780   107.100000  # NA-CW-CW
   7    35.002390   122.000000  # NA-CW-HA
   8    35.002390   130.900000  # CW-CW-HA
   9    37.500000   110.700000  # NA-CT-HC
  10    32.994742   107.800000  # HC-CT-HC
  11    58.353250   112.700000  # NA-CT-CT
  12    37.500000   110.700000  # CT-CT-HC
  13    80.186424   125.600000  # SB-NB-SB
  14    91.300191   103.500000  # NB-SB-CF
  15    94.287763   113.600000  # NB-SB-OB
  16   103.967495   102.600000  # CF-SB-OB
  17   115.798279   118.500000  # OB-SB-OB
  18    82.934990   111.700000  # FB-CF-SB
  19    93.331740   107.100000  # FB-CF-FB

Dihedral Coeffs

   1     0.000000     4.651052     0.000000     0.000000  # CT-NA-CR-NA
   2     0.000000     4.651052     0.000000     0.000000  # CW-NA-CR-NA
   3     0.000000     4.651052     0.000000     0.000000  # CT-NA-CR-HA
   4     0.000000     4.651052     0.000000     0.000000  # CW-NA-CR-HA
   5     0.000000     3.000000     0.000000     0.000000  # CR-NA-CW-CW
   6     0.000000     3.000000     0.000000     0.000000  # CT-NA-CW-CW
   7     0.000000     3.000000     0.000000     0.000000  # CR-NA-CW-HA
   8     0.000000     3.000000     0.000000     0.000000  # CT-NA-CW-HA
   9     0.000000    10.750478     0.000000     0.000000  # NA-CW-CW-HA
  10     0.000000    10.750478     0.000000     0.000000  # HA-CW-CW-HA
  11     0.000000    10.750478     0.000000     0.000000  # NA-CW-CW-NA
  12     0.000000     0.000000     0.000000     0.000000  # CR-NA-CT-HC
  13     0.000000     0.000000     0.124044     0.000000  # CW-NA-CT-HC
  14    -1.259345     0.000000     0.000000     0.000000  # CR-NA-CT-CT
  15    -1.709728     1.459465     0.189747     0.000000  # CW-NA-CT-CT
  16     0.000000     0.000000     0.087715     0.000000  # NA-CT-CT-HC
  17     0.000000     0.000000     0.300000     0.000000  # HC-CT-CT-HC
  18     7.832935    -2.490440    -0.763623     0.000000  # SB-NB-SB-CF
  19     0.000000     0.000000    -0.003585     0.000000  # OB-SB-NB-SB
  20     0.000000     0.000000     0.315966     0.000000  # NB-SB-CF-FB
  21     0.000000     0.000000     0.346797     0.000000  # OB-SB-CF-FB
  22     0.000000     2.000000     0.000000     0.000000  # CR-CW-NA-CT
  23     0.000000     2.200000     0.000000     0.000000  # NA-NA-CR-HA
  24     0.000000     2.200000     0.000000     0.000000  # NA-CW-CW-HA

Atoms

      1       1    1   0.150000  3.998651e+01  5.582240e+00  1.297734e+01  # NA c2c1im+
      2       1    2  -0.110000  4.059850e+01  5.617678e+00  1.414071e+01  # CR c2c1im+
      3       1    1   0.150000  4.032551e+01  6.748766e+00  1.475336e+01  # NA c2c1im+
      4       1    3  -0.130000  3.949091e+01  7.483340e+00  1.393928e+01  # CW c2c1im+
      5       1    3  -0.130000  3.927964e+01  6.756340e+00  1.283243e+01  # CW c2c1im+
      6       1    4  -0.170000  4.003949e+01  4.491712e+00  1.199902e+01  # C1 c2c1im+
      7       1    5   0.210000  4.123052e+01  4.835207e+00  1.453402e+01  # HCR c2c1im+
      8       1    6  -0.170000  4.081804e+01  7.163245e+00  1.607047e+01  # C1A c2c1im+
      9       1    7   0.210000  3.908362e+01  8.460601e+00  1.415252e+01  # HCW c2c1im+
     10       1    7   0.210000  3.867017e+01  7.037880e+00  1.198645e+01  # HCW c2c1im+
     11       1    8   0.130000  4.044964e+01  4.864500e+00  1.106046e+01  # H1 c2c1im+
     12       1    8   0.130000  4.067422e+01  3.691660e+00  1.237998e+01  # H1 c2c1im+
     13       1    8   0.130000  3.903404e+01  4.106996e+00  1.182820e+01  # H1 c2c1im+
     14       1    9  -0.050000  4.171120e+01  6.075069e+00  1.664365e+01  # CE c2c1im+
     15       1    8   0.130000  4.138896e+01  8.086470e+00  1.597143e+01  # H1 c2c1im+
     16       1    8   0.130000  3.997336e+01  7.328966e+00  1.673917e+01  # H1 c2c1im+
     17       1   10   0.060000  4.207741e+01  6.383242e+00  1.762295e+01  # HC c2c1im+
     18       1   10   0.060000  4.114100e+01  5.151508e+00  1.674368e+01  # HC c2c1im+
     19       1   10   0.060000  4.255659e+01  5.909012e+00  1.597594e+01  # HC c2c1im+
     20       2    1   0.150000  1.603242e+01  2.526479e+01  2.818631e+01  # NA c2c1im+
     21       2    2  -0.110000  1.730878e+01  2.494933e+01  2.816153e+01  # CR c2c1im+
     22       2    1   0.150000  1.750576e+01  2.383665e+01  2.883411e+01  # NA c2c1im+
     23       2    3  -0.130000  1.628825e+01  2.341125e+01  2.931949e+01  # CW c2c1im+
     24       2    3  -0.130000  1.537004e+01  2.430129e+01  2.891577e+01  # CW c2c1im+
     25       2    4  -0.170000  1.541217e+01  2.643263e+01  2.755339e+01  # C1 c2c1im+
     26       2    5   0.210000  1.807963e+01  2.551868e+01  2.766350e+01  # HCR c2c1im+
     27       2    6  -0.170000  1.879088e+01  2.316097e+01  2.903678e+01  # C1A c2c1im+
     28       2    7   0.210000  1.610755e+01  2.252741e+01  2.991327e+01  # HCW c2c1im+
     29       2    7   0.210000  1.431063e+01  2.426920e+01  2.912320e+01  # HCW c2c1im+
     30       2    8   0.130000  1.493005e+01  2.704591e+01  2.831467e+01  # H1 c2c1im+
     31       2    8   0.130000  1.617682e+01  2.701996e+01  2.704501e+01  # H1 c2c1im+
     32       2    8   0.130000  1.466781e+01  2.610157e+01  2.682921e+01  # H1 c2c1im+
     33       2    9  -0.050000  1.989200e+01  2.394633e+01  2.834312e+01  # CE c2c1im+
     34       2    8   0.130000  1.900563e+01  2.310001e+01  3.010368e+01  # H1 c2c1im+
     35       2    8   0.130000  1.874339e+01  2.215566e+01  2.861822e+01  # H1 c2c1im+
     36       2   10   0.060000  2.084751e+01  2.344395e+01  2.849382e+01  # HC c2c1im+
     37       2   10   0.060000  1.967848e+01  2.400734e+01  2.727598e+01  # HC c2c1im+
     38       2   10   0.060000  1.994073e+01  2.495168e+01  2.876144e+01  # HC c2c1im+
     39       3    1   0.150000  4.000451e+01  2.946501e+01  4.401081e+01  # NA c2c1im+
     40       3    2  -0.110000  3.878825e+01  2.993144e+01  4.383087e+01  # CR c2c1im+
     41       3    1   0.150000  3.865957e+01  3.037704e+01  4.260038e+01  # NA c2c1im+
     42       3    3  -0.130000  3.986005e+01  3.018716e+01  4.195101e+01  # CW c2c1im+
     43       3    3  -0.130000  4.069824e+01  2.961876e+01  4.283001e+01  # CW c2c1im+
     44       3    4  -0.170000  4.053926e+01  2.888210e+01  4.524507e+01  # C1 c2c1im+
     45       3    5   0.210000  3.801154e+01  2.994632e+01  4.458114e+01  # HCR c2c1im+
     46       3    6  -0.170000  3.745483e+01  3.097240e+01  4.201446e+01  # C1A c2c1im+
     47       3    7   0.210000  4.008375e+01  3.044716e+01  4.092692e+01  # HCW c2c1im+
     48       3    7   0.210000  4.172407e+01  2.933483e+01  4.264711e+01  # HCW c2c1im+
     49       3    8   0.130000  4.139424e+01  2.946752e+01  4.558329e+01  # H1 c2c1im+
     50       3    8   0.130000  3.976754e+01  2.888894e+01  4.601481e+01  # H1 c2c1im+
     51       3    8   0.130000  4.085416e+01  2.785583e+01  4.505612e+01  # H1 c2c1im+
     52       3    9  -0.050000  3.634689e+01  3.100346e+01  4.305461e+01  # CE c2c1im+
     53       3    8   0.130000  3.767361e+01  3.198876e+01  4.168697e+01  # H1 c2c1im+
     54       3    8   0.130000  3.713353e+01  3.037707e+01  4.115980e+01  # H1 c2c1im+
     55       3   10   0.060000  3.545114e+01  3.144612e+01  4.261897e+01  # HC c2c1im+
     56       3   10   0.060000  3.612691e+01  2.998744e+01  4.338233e+01  # HC c2c1im+
     57       3   10   0.060000  3.666699e+01  3.159913e+01  4.390949e+01  # HC c2c1im+
     58       4    1   0.150000  3.864335e+01  2.456305e+01  3.286835e+00  # NA c2c1im+
     59       4    2  -0.110000  3.911057e+01  2.567208e+01  2.756770e+00  # CR c2c1im+
     60       4    1   0.150000  3.952641e+01  2.647956e+01  3.707706e+00  # NA c2c1im+
     61       4    3  -0.130000  3.931538e+01  2.585603e+01  4.918308e+00  # CW c2c1im+
     62       4    3  -0.130000  3.876504e+01  2.466163e+01  4.656013e+00  # CW c2c1im+
     63       4    4  -0.170000  3.808855e+01  2.341737e+01  2.559672e+00  # C1 c2c1im+
     64       4    5   0.210000  3.914727e+01  2.588744e+01  1.699096e+00  # HCR c2c1im+
     65       4    6  -0.170000  4.011252e+01  2.781035e+01  3.521545e+00  # C1A c2c1im+
     66       4    7   0.210000  3.954919e+01  2.625431e+01  5.894579e+00  # HCW c2c1im+
     67       4    7   0.210000  3.847219e+01  2.391689e+01  5.381276e+00  # HCW c2c1im+
     68       4    8   0.130000  3.705658e+01  2.325432e+01  2.870386e+00  # H1 c2c1im+
     69       4    8   0.130000  3.811766e+01  2.361750e+01  1.488598e+00  # H1 c2c1im+
     70       4    8   0.130000  3.867832e+01  2.252723e+01  2.778604e+00  # H1 c2c1im+
     71       4    9  -0.050000  4.017395e+01  2.813468e+01  2.037821e+00  # CE c2c1im+
     72       4    8   0.130000  3.949781e+01  2.855304e+01  4.030123e+00  # H1 c2c1im+
     73       4    8   0.130000  4.111956e+01  2.782595e+01  3.938342e+00  # H1 c2c1im+
     74       4   10   0.060000  4.060973e+01  2.912414e+01  1.899407e+00  # HC c2c1im+
     75       4   10   0.060000  4.078900e+01  2.739285e+01  1.528388e+00  # HC c2c1im+
     76       4   10   0.060000  3.916725e+01  2.811994e+01  1.620170e+00  # HC c2c1im+
     77       5    1   0.150000  7.808638e+00  1.894448e+01  3.099799e+01  # NA c2c1im+
     78       5    2  -0.110000  7.471366e+00  1.929114e+01  3.222082e+01  # CR c2c1im+
     79       5    1   0.150000  7.366697e+00  2.059957e+01  3.230004e+01  # NA c2c1im+
     80       5    3  -0.130000  7.652500e+00  2.112555e+01  3.105885e+01  # CW c2c1im+
     81       5    3  -0.130000  7.927926e+00  2.009406e+01  3.024739e+01  # CW c2c1im+
     82       5    4  -0.170000  8.022706e+00  1.757941e+01  3.050818e+01  # C1 c2c1im+
     83       5    5   0.210000  7.305249e+00  1.860428e+01  3.303754e+01  # HCR c2c1im+
     84       5    6  -0.170000  7.009404e+00  2.137093e+01  3.349440e+01  # C1A c2c1im+
     85       5    7   0.210000  7.654333e+00  2.217159e+01  3.079017e+01  # HCW c2c1im+
     86       5    7   0.210000  8.193333e+00  2.015300e+01  2.920217e+01  # HCW c2c1im+
     87       5    8   0.130000  9.044264e+00  1.748058e+01  3.014109e+01  # H1 c2c1im+
     88       5    8   0.130000  7.859041e+00  1.687146e+01  3.132065e+01  # H1 c2c1im+
     89       5    8   0.130000  7.324203e+00  1.736980e+01  2.969808e+01  # H1 c2c1im+
     90       5    9  -0.050000  6.770735e+00  2.042272e+01  3.465816e+01  # CE c2c1im+
     91       5    8   0.130000  7.821993e+00  2.205346e+01  3.374329e+01  # H1 c2c1im+
     92       5    8   0.130000  6.101932e+00  2.194269e+01  3.330027e+01  # H1 c2c1im+
     93       5   10   0.060000  6.505081e+00  2.099624e+01  3.554620e+01  # HC c2c1im+
     94       5   10   0.060000  5.957836e+00  1.974011e+01  3.441050e+01  # HC c2c1im+
     95       5   10   0.060000  7.677897e+00  1.985088e+01  3.485352e+01  # HC c2c1im+
     96       6    1   0.150000  3.912228e+01  3.521771e+00  1.645345e+01  # NA c2c1im+
     97       6    2  -0.110000  3.852249e+01  4.506270e+00  1.708609e+01  # CR c2c1im+
     98       6    1   0.150000  3.790901e+01  5.283533e+00  1.622080e+01  # NA c2c1im+
     99       6    3  -0.130000  3.812556e+01  4.771291e+00  1.496001e+01  # CW c2c1im+
    100       6    3  -0.130000  3.888169e+01  3.673328e+00  1.510500e+01  # CW c2c1im+
    101       6    4  -0.170000  3.991045e+01  2.447094e+00  1.706420e+01  # C1 c2c1im+
    102       6    5   0.210000  3.853226e+01  4.654271e+00  1.815586e+01  # HCR c2c1im+
    103       6    6  -0.170000  3.712980e+01  6.485225e+00  1.653373e+01  # C1A c2c1im+
    104       6    7   0.210000  3.775590e+01  5.177603e+00  1.403013e+01  # HCW c2c1im+
    105       6    7   0.210000  3.923563e+01  3.028920e+00  1.431389e+01  # HCW c2c1im+
    106       6    8   0.130000  4.092834e+01  2.476338e+00  1.667543e+01  # H1 c2c1im+
    107       6    8   0.130000  3.993119e+01  2.580644e+00  1.814579e+01  # H1 c2c1im+
    108       6    8   0.130000  3.945867e+01  1.484121e+00  1.682613e+01  # H1 c2c1im+
    109       6    9  -0.050000  3.713009e+01  6.713044e+00  1.803656e+01  # CE c2c1im+
    110       6    8   0.130000  3.757444e+01  7.347023e+00  1.603604e+01  # H1 c2c1im+
    111       6    8   0.130000  3.610477e+01  6.354806e+00  1.618674e+01  # H1 c2c1im+
    112       6   10   0.060000  3.655074e+01  7.606525e+00  1.826923e+01  # HC c2c1im+
    113       6   10   0.060000  3.668504e+01  5.851996e+00  1.853518e+01  # HC c2c1im+
    114       6   10   0.060000  3.815471e+01  6.844213e+00  1.838449e+01  # HC c2c1im+
    115       7    1   0.150000  4.715118e+00  2.378110e+00  5.605722e+00  # NA c2c1im+
    116       7    2  -0.110000  4.293842e+00  2.399160e+00  6.851237e+00  # CR c2c1im+
    117       7    1   0.150000  2.979248e+00  2.379424e+00  6.877220e+00  # NA c2c1im+
    118       7    3  -0.130000  2.528102e+00  2.343654e+00  5.575655e+00  # CW c2c1im+
    119       7    3  -0.130000  3.609928e+00  2.342835e+00  4.783234e+00  # CW c2c1im+
    120       7    4  -0.170000  6.111342e+00  2.389797e+00  5.158979e+00  # C1 c2c1im+
    121       7    5   0.210000  4.931817e+00  2.428288e+00  7.722180e+00  # HCR c2c1im+
    122       7    6  -0.170000  2.134568e+00  2.392883e+00  8.075340e+00  # C1A c2c1im+
    123       7    7   0.210000  1.497292e+00  2.320616e+00  5.254253e+00  # HCW c2c1im+
    124       7    7   0.210000  3.614397e+00  2.319014e+00  3.703506e+00  # HCW c2c1im+
    125       7    8   0.130000  6.287724e+00  3.268957e+00  4.539247e+00  # H1 c2c1im+
    126       7    8   0.130000  6.770688e+00  2.419179e+00  6.026447e+00  # H1 c2c1im+
    127       7    8   0.130000  6.315210e+00  1.489959e+00  4.578611e+00  # H1 c2c1im+
    128       7    9  -0.050000  3.013085e+00  2.433888e+00  9.315069e+00  # CE c2c1im+
    129       7    8   0.130000  1.491366e+00  3.272691e+00  8.057197e+00  # H1 c2c1im+
    130       7    8   0.130000  1.518852e+00  1.493693e+00  8.096560e+00  # H1 c2c1im+
    131       7   10   0.060000  2.385049e+00  2.443895e+00  1.020589e+01  # HC c2c1im+
    132       7   10   0.060000  3.656289e+00  1.554108e+00  9.334476e+00  # HC c2c1im+
    133       7   10   0.060000  3.628803e+00  3.333106e+00  9.295113e+00  # HC c2c1im+
    134       8    1   0.150000  2.019958e+01  3.267994e+01  3.462544e+01  # NA c2c1im+
    135       8    2  -0.110000  2.016024e+01  3.136640e+01  3.467323e+01  # CR c2c1im+
    136       8    1   0.150000  2.136787e+01  3.089209e+01  3.488746e+01  # NA c2c1im+
    137       8    3  -0.130000  2.223390e+01  3.195967e+01  3.498307e+01  # CW c2c1im+
    138       8    3  -0.130000  2.150580e+01  3.307389e+01  3.481978e+01  # CW c2c1im+
    139       8    4  -0.170000  1.906140e+01  3.357722e+01  3.440498e+01  # C1 c2c1im+
    140       8    5   0.210000  1.926971e+01  3.076704e+01  3.455436e+01  # HCR c2c1im+
    141       8    6  -0.170000  2.173670e+01  2.947814e+01  3.500518e+01  # C1A c2c1im+
    142       8    7   0.210000  2.329861e+01  3.190864e+01  3.515682e+01  # HCW c2c1im+
    143       8    7   0.210000  2.187374e+01  3.408913e+01  3.483726e+01  # HCW c2c1im+
    144       8    8   0.130000  1.923373e+01  3.416948e+01  3.350630e+01  # H1 c2c1im+
    145       8    8   0.130000  1.815229e+01  3.298844e+01  3.428268e+01  # H1 c2c1im+
    146       8    8   0.130000  1.895073e+01  3.424182e+01  3.526181e+01  # H1 c2c1im+
    147       8    9  -0.050000  2.049647e+01  2.861487e+01  3.484082e+01  # CE c2c1im+
    148       8    8   0.130000  2.246020e+01  2.922509e+01  3.423019e+01  # H1 c2c1im+
    149       8    8   0.130000  2.217720e+01  2.929744e+01  3.598570e+01  # H1 c2c1im+
    150       8   10   0.060000  2.077071e+01  2.756357e+01  3.492835e+01  # HC c2c1im+
    151       8   10   0.060000  1.977254e+01  2.886673e+01  3.561579e+01  # HC c2c1im+
    152       8   10   0.060000  2.005554e+01  2.879439e+01  3.386028e+01  # HC c2c1im+
    153       9    1   0.150000  2.885129e+00  4.247447e+01  6.223834e+00  # NA c2c1im+
    154       9    2  -0.110000  2.967747e+00  4.378514e+01  6.156319e+00  # CR c2c1im+
    155       9    1   0.150000  3.586688e+00  4.413607e+01  5.050433e+00  # NA c2c1im+
    156       9    3  -0.130000  3.921682e+00  4.298731e+01  4.367041e+00  # CW c2c1im+
    157       9    3  -0.130000  3.484457e+00  4.195177e+01  5.098325e+00  # CW c2c1im+
    158       9    4  -0.170000  2.266962e+00  4.169581e+01  7.301198e+00  # C1 c2c1im+
    159       9    5   0.210000  2.584725e+00  4.447054e+01  6.897883e+00  # HCR c2c1im+
    160       9    6  -0.170000  3.873871e+00  4.550575e+01  4.613804e+00  # C1A c2c1im+
    161       9    7   0.210000  4.438981e+00  4.293148e+01  3.420635e+00  # HCW c2c1im+
    162       9    7   0.210000  3.583344e+00  4.090496e+01  4.851740e+00  # HCW c2c1im+
    163       9    8   0.130000  3.012986e+00  4.104044e+01  7.750682e+00  # H1 c2c1im+
    164       9    8   0.130000  1.874164e+00  4.237255e+01  8.060033e+00  # H1 c2c1im+
    165       9    8   0.130000  1.453464e+00  4.109467e+01  6.895059e+00  # H1 c2c1im+
    166       9    9  -0.050000  3.342654e+00  4.648871e+01  5.644338e+00  # CE c2c1im+
    167       9    8   0.130000  4.951015e+00  4.563611e+01  4.509564e+00  # H1 c2c1im+
    168       9    8   0.130000  3.391493e+00  4.569034e+01  3.653941e+00  # H1 c2c1im+
    169       9   10   0.060000  3.556180e+00  4.750710e+01  5.319696e+00  # HC c2c1im+
    170       9   10   0.060000  2.265391e+00  4.635958e+01  5.748873e+00  # HC c2c1im+
    171       9   10   0.060000  3.824913e+00  4.630535e+01  6.604496e+00  # HC c2c1im+
    172      10    1   0.150000  4.610344e+01  2.849053e+01  2.862239e+01  # NA c2c1im+
    173      10    2  -0.110000  4.633338e+01  2.723941e+01  2.828915e+01  # CR c2c1im+
    174      10    1   0.150000  4.555390e+01  2.644224e+01  2.898639e+01  # NA c2c1im+
    175      10    3  -0.130000  4.477823e+01  2.722331e+01  2.981534e+01  # CW c2c1im+
    176      10    3  -0.130000  4.512071e+01  2.849984e+01  2.958849e+01  # CW c2c1im+
    177      10    4  -0.170000  4.676879e+01  2.967451e+01  2.807045e+01  # C1 c2c1im+
    178      10    5   0.210000  4.705428e+01  2.691521e+01  2.755321e+01  # HCR c2c1im+
    179      10    6  -0.170000  4.551116e+01  2.497925e+01  2.890281e+01  # C1A c2c1im+
    180      10    7   0.210000  4.403449e+01  2.687328e+01  3.051586e+01  # HCW c2c1im+
    181      10    7   0.210000  4.470472e+01  2.937141e+01  3.007192e+01  # HCW c2c1im+
    182      10    8   0.130000  4.727269e+01  3.021530e+01  2.887154e+01  # H1 c2c1im+
    183      10    8   0.130000  4.750118e+01  2.936573e+01  2.732455e+01  # H1 c2c1im+
    184      10    8   0.130000  4.602792e+01  3.032406e+01  2.760430e+01  # H1 c2c1im+
    185      10    9  -0.050000  4.651954e+01  2.450031e+01  2.787121e+01  # CE c2c1im+
    186      10    8   0.130000  4.575608e+01  2.455194e+01  2.987518e+01  # H1 c2c1im+
    187      10    8   0.130000  4.451132e+01  2.466070e+01  2.860795e+01  # H1 c2c1im+
    188      10   10   0.060000  4.648777e+01  2.341254e+01  2.780906e+01  # HC c2c1im+
    189      10   10   0.060000  4.627511e+01  2.492660e+01  2.689826e+01  # HC c2c1im+
    190      10   10   0.060000  4.751987e+01  2.481784e+01  2.816549e+01  # HC c2c1im+
    191      11    1   0.150000  3.276963e+01  8.873273e+00  2.476795e+00  # NA c2c1im+
    192      11    2  -0.110000  3.378925e+01  9.559239e+00  2.944826e+00  # CR c2c1im+
    193      11    1   0.150000  3.490260e+01  8.884284e+00  2.760133e+00  # NA c2c1im+
    194      11    3  -0.130000  3.458258e+01  7.696938e+00  2.138297e+00  # CW c2c1im+
    195      11    3  -0.130000  3.325328e+01  7.690075e+00  1.961716e+00  # CW c2c1im+
    196      11    4  -0.170000  3.136259e+01  9.284462e+00  2.494341e+00  # C1 c2c1im+
    197      11    5   0.210000  3.372231e+01  1.053116e+01  3.410978e+00  # HCR c2c1im+
    198      11    6  -0.170000  3.625093e+01  9.312193e+00  3.144915e+00  # C1A c2c1im+
    199      11    7   0.210000  3.527248e+01  6.918435e+00  1.847828e+00  # HCW c2c1im+
    200      11    7   0.210000  3.267107e+01  6.905006e+00  1.502263e+00  # HCW c2c1im+
    201      11    8   0.130000  3.077862e+01  8.559232e+00  3.061018e+00  # H1 c2c1im+
    202      11    8   0.130000  3.127591e+01  1.026513e+01  2.962194e+00  # H1 c2c1im+
    203      11    8   0.130000  3.098558e+01  9.335191e+00  1.472876e+00  # H1 c2c1im+
    204      11    9  -0.050000  3.618040e+01  1.068003e+01  3.804042e+00  # CE c2c1im+
    205      11    8   0.130000  3.667471e+01  8.593078e+00  3.845904e+00  # H1 c2c1im+
    206      11    8   0.130000  3.688167e+01  9.369038e+00  2.257762e+00  # H1 c2c1im+
    207      11   10   0.060000  3.718291e+01  1.099819e+01  4.090135e+00  # HC c2c1im+
    208      11   10   0.060000  3.575730e+01  1.140007e+01  3.103592e+00  # HC c2c1im+
    209      11   10   0.060000  3.555034e+01  1.062411e+01  4.691734e+00  # HC c2c1im+
    210      12    1   0.150000  2.277332e+01  2.215345e+01  4.544164e+01  # NA c2c1im+
    211      12    2  -0.110000  2.395902e+01  2.175263e+01  4.584499e+01  # CR c2c1im+
    212      12    1   0.150000  2.472359e+01  2.279510e+01  4.608563e+01  # NA c2c1im+
    213      12    3  -0.130000  2.398957e+01  2.393129e+01  4.582264e+01  # CW c2c1im+
    214      12    3  -0.130000  2.277413e+01  2.353141e+01  4.542130e+01  # CW c2c1im+
    215      12    4  -0.170000  2.164258e+01  2.129522e+01  4.507554e+01  # C1 c2c1im+
    216      12    5   0.210000  2.425977e+01  2.072188e+01  4.596120e+01  # HCR c2c1im+
    217      12    6  -0.170000  2.611313e+01  2.276316e+01  4.655177e+01  # C1A c2c1im+
    218      12    7   0.210000  2.432922e+01  2.495174e+01  4.592120e+01  # HCW c2c1im+
    219      12    7   0.210000  2.195064e+01  2.416918e+01  4.513578e+01  # HCW c2c1im+
    220      12    8   0.130000  2.136134e+01  2.148603e+01  4.403988e+01  # H1 c2c1im+
    221      12    8   0.130000  2.192858e+01  2.024934e+01  4.518704e+01  # H1 c2c1im+
    222      12    8   0.130000  2.079591e+01  2.151128e+01  4.572712e+01  # H1 c2c1im+
    223      12    9  -0.050000  2.655800e+01  2.131977e+01  4.672245e+01  # CE c2c1im+
    224      12    8   0.130000  2.675366e+01  2.325617e+01  4.582050e+01  # H1 c2c1im+
    225      12    8   0.130000  2.618822e+01  2.328142e+01  4.750774e+01  # H1 c2c1im+
    226      12   10   0.060000  2.759115e+01  2.129602e+01  4.706905e+01  # HC c2c1im+
    227      12   10   0.060000  2.591844e+01  2.082600e+01  4.745406e+01  # HC c2c1im+
    228      12   10   0.060000  2.648387e+01  2.080076e+01  4.576682e+01  # HC c2c1im+
    229      13    1   0.150000  2.554985e+01  4.361402e+01  2.907913e+01  # NA c2c1im+
    230      13    2  -0.110000  2.460989e+01  4.442182e+01  2.863962e+01  # CR c2c1im+
    231      13    1   0.150000  2.505488e+01  4.565919e+01  2.862942e+01  # NA c2c1im+
    232      13    3  -0.130000  2.635429e+01  4.564821e+01  2.908801e+01  # CW c2c1im+
    233      13    3  -0.130000  2.666277e+01  4.437362e+01  2.936827e+01  # CW c2c1im+
    234      13    4  -0.170000  2.544399e+01  4.216048e+01  2.923775e+01  # C1 c2c1im+
    235      13    5   0.210000  2.362081e+01  4.411503e+01  2.833302e+01  # HCR c2c1im+
    236      13    6  -0.170000  2.430704e+01  4.684698e+01  2.820629e+01  # C1A c2c1im+
    237      13    7   0.210000  2.700228e+01  4.650486e+01  2.920053e+01  # HCW c2c1im+
    238      13    7   0.210000  2.760596e+01  4.401052e+01  2.974900e+01  # HCW c2c1im+
    239      13    8   0.130000  2.560847e+01  4.189550e+01  3.028218e+01  # H1 c2c1im+
    240      13    8   0.130000  2.445034e+01  4.183255e+01  2.893239e+01  # H1 c2c1im+
    241      13    8   0.130000  2.619432e+01  4.167110e+01  2.861678e+01  # H1 c2c1im+
    242      13    9  -0.050000  2.290969e+01  4.643795e+01  2.776985e+01  # CE c2c1im+
    243      13    8   0.130000  2.423673e+01  4.754805e+01  2.903796e+01  # H1 c2c1im+
    244      13    8   0.130000  2.482258e+01  4.732364e+01  2.737256e+01  # H1 c2c1im+
    245      13   10   0.060000  2.235365e+01  4.732110e+01  2.745524e+01  # HC c2c1im+
    246      13   10   0.060000  2.297889e+01  4.573730e+01  2.693774e+01  # HC c2c1im+
    247      13   10   0.060000  2.239304e+01  4.596171e+01  2.860314e+01  # HC c2c1im+
    248      14    1   0.150000  1.057843e+01  4.355768e+01  2.394534e+01  # NA c2c1im+
    249      14    2  -0.110000  1.145909e+01  4.432854e+01  2.334583e+01  # CR c2c1im+
    250      14    1   0.150000  1.112434e+01  4.559083e+01  2.350011e+01  # NA c2c1im+
    251      14    3  -0.130000  9.962986e+00  4.563596e+01  2.424045e+01  # CW c2c1im+
    252      14    3  -0.130000  9.622764e+00  4.436886e+01  2.451793e+01  # CW c2c1im+
    253      14    4  -0.170000  1.059927e+01  4.209289e+01  2.400134e+01  # C1 c2c1im+
    254      14    5   0.210000  1.232710e+01  4.397759e+01  2.280750e+01  # HCR c2c1im+
    255      14    6  -0.170000  1.185266e+01  4.675174e+01  2.297954e+01  # C1A c2c1im+
    256      14    7   0.210000  9.427573e+00  4.652455e+01  2.454070e+01  # HCW c2c1im+
    257      14    7   0.210000  8.761768e+00  4.404487e+01  2.508371e+01  # HCW c2c1im+
    258      14    8   0.130000  9.692598e+00  4.169831e+01  2.354270e+01  # H1 c2c1im+
    259      14    8   0.130000  1.147028e+01  4.172052e+01  2.346211e+01  # H1 c2c1im+
    260      14    8   0.130000  1.065044e+01  4.176921e+01  2.504091e+01  # H1 c2c1im+
    261      14    9  -0.050000  1.308021e+01  4.628043e+01  2.221705e+01  # CE c2c1im+
    262      14    8   0.130000  1.120474e+01  4.731747e+01  2.231002e+01  # H1 c2c1im+
    263      14    8   0.130000  1.216258e+01  4.738837e+01  2.380824e+01  # H1 c2c1im+
    264      14   10   0.060000  1.362172e+01  4.714359e+01  2.182999e+01  # HC c2c1im+
    265      14   10   0.060000  1.372913e+01  4.571507e+01  2.288590e+01  # HC c2c1im+
    266      14   10   0.060000  1.277129e+01  4.564417e+01  2.138768e+01  # HC c2c1im+
    267      15    1   0.150000  3.346941e+01  2.227617e+01  2.957403e+01  # NA c2c1im+
    268      15    2  -0.110000  3.335070e+01  2.330167e+01  2.875949e+01  # CR c2c1im+
    269      15    1   0.150000  3.284249e+01  2.432770e+01  2.940619e+01  # NA c2c1im+
    270      15    3  -0.130000  3.262131e+01  2.394184e+01  3.071044e+01  # CW c2c1im+
    271      15    3  -0.130000  3.301202e+01  2.266329e+01  3.081505e+01  # CW c2c1im+
    272      15    4  -0.170000  3.399421e+01  2.095040e+01  2.923335e+01  # C1 c2c1im+
    273      15    5   0.210000  3.362887e+01  2.330129e+01  2.771593e+01  # HCR c2c1im+
    274      15    6  -0.170000  3.255812e+01  2.565226e+01  2.884598e+01  # C1A c2c1im+
    275      15    7   0.210000  3.221061e+01  2.455391e+01  3.149980e+01  # HCW c2c1im+
    276      15    7   0.210000  3.297521e+01  2.205182e+01  3.170451e+01  # HCW c2c1im+
    277      15    8   0.130000  3.322665e+01  2.019783e+01  2.941387e+01  # H1 c2c1im+
    278      15    8   0.130000  3.428054e+01  2.093162e+01  2.818180e+01  # H1 c2c1im+
    279      15    8   0.130000  3.486622e+01  2.073460e+01  2.985072e+01  # H1 c2c1im+
    280      15    9  -0.050000  3.294261e+01  2.567449e+01  2.737559e+01  # CE c2c1im+
    281      15    8   0.130000  3.149460e+01  2.586902e+01  2.894622e+01  # H1 c2c1im+
    282      15    8   0.130000  3.313417e+01  2.640579e+01  2.938306e+01  # H1 c2c1im+
    283      15   10   0.060000  3.273117e+01  2.665933e+01  2.695906e+01  # HC c2c1im+
    284      15   10   0.060000  3.400617e+01  2.545844e+01  2.727430e+01  # HC c2c1im+
    285      15   10   0.060000  3.236660e+01  2.492167e+01  2.683746e+01  # HC c2c1im+
    286      16    1   0.150000  4.624673e+01  9.178744e+00  3.440083e+01  # NA c2c1im+
    287      16    2  -0.110000  4.640376e+01  9.412754e+00  3.311638e+01  # CR c2c1im+
    288      16    1   0.150000  4.568739e+01  1.045736e+01  3.276308e+01  # NA c2c1im+
    289      16    3  -0.130000  4.503203e+01  1.092257e+01  3.388244e+01  # CW c2c1im+
    290      16    3  -0.130000  4.538062e+01  1.012571e+01  3.490312e+01  # CW c2c1im+
    291      16    4  -0.170000  4.687660e+01  8.103403e+00  3.517287e+01  # C1 c2c1im+
    292      16    5   0.210000  4.702752e+01  8.833857e+00  3.245140e+01  # HCR c2c1im+
    293      16    6  -0.170000  4.559627e+01  1.103236e+01  3.141763e+01  # C1A c2c1im+
    294      16    7   0.210000  4.436350e+01  1.176950e+01  3.392895e+01  # HCW c2c1im+
    295      16    7   0.210000  4.504568e+01  1.021007e+01  3.592639e+01  # HCW c2c1im+
    296      16    8   0.130000  4.610528e+01  7.467298e+00  3.560707e+01  # H1 c2c1im+
    297      16    8   0.130000  4.751106e+01  7.507772e+00  3.451652e+01  # H1 c2c1im+
    298      16    8   0.130000  4.748248e+01  8.534465e+00  3.596987e+01  # H1 c2c1im+
    299      16    9  -0.050000  4.646784e+01  1.023190e+01  3.046367e+01  # CE c2c1im+